
Host: BEAST_MACHINE

Timers On : Mon Jun 29 23:59:14 2026
Timers Off: Mon Jun 29 23:59:15 2026

Wall Time:        1.24 seconds

                                                       Time (seconds)
Module                                       User      System        Wall        Calls
DFH: sparsity prep                  :      0.000u      0.000s      0.002w      1 calls
Libint2ERI::Libint2ERI              :      0.000u      0.000s      0.003w      3 calls
DFH: initialize()                   :      0.000u      0.000s      0.019w      1 calls
DFH: AO Construction                :      0.000u      0.000s      0.001w      1 calls
DFH: AO-Met. Contraction            :      0.000u      0.000s      0.000w      1 calls
HF: Form core H                     :      0.000u      0.000s      0.002w      1 calls
HF: Form S/X                        :      0.000u      0.000s      0.000w      1 calls
HF: Guess                           :      0.000u      0.000s      0.045w      1 calls
SAD Guess                           :      0.000u      0.000s      0.043w      1 calls
HF: Form G                          :      0.000u      0.000s      0.002w     11 calls
JK: D                               :      0.000u      0.000s      0.000w     11 calls
JK: USO2AO                          :      0.000u      0.000s      0.000w     11 calls
JK: JK                              :      0.000u      0.000s      0.001w     11 calls
DFH: compute_JK()                   :      0.000u      0.000s      0.001w     11 calls
DFH: Grabbing AOs                   :      0.000u      0.000s      0.000w     11 calls
DFH: compute_J                      :      0.000u      0.000s      0.000w     11 calls
DFH: compute_K                      :      0.000u      0.000s      0.001w     11 calls
JK: AO2USO                          :      0.000u      0.000s      0.000w     11 calls
HF: Form F                          :      0.000u      0.000s      0.000w     11 calls
HF: Form D                          :      0.000u      0.000s      0.000w     11 calls
HF: DIIS                            :      0.000u      0.000s      0.339w     10 calls
HF: Form C                          :      0.000u      0.000s      0.004w     10 calls

--------------------------------------------------------------------------------------
DFH: sparsity prep                  :      0.000u      0.000s      0.002w      1 calls
| Libint2ERI::Libint2ERI            :      0.000u      0.000s      0.002w      1 calls
DFH: initialize()                   :      0.000u      0.000s      0.019w      1 calls
| Libint2ERI::Libint2ERI            :      0.000u      0.000s      0.001w      2 calls
| DFH: AO Construction              :      0.000u      0.000s      0.001w      1 calls
| DFH: AO-Met. Contraction          :      0.000u      0.000s      0.000w      1 calls
HF: Form core H                     :      0.000u      0.000s      0.002w      1 calls
HF: Form S/X                        :      0.000u      0.000s      0.000w      1 calls
HF: Guess                           :      0.000u      0.000s      0.045w      1 calls
| SAD Guess                         :      0.000u      0.000s      0.043w      1 calls
HF: Form G                          :      0.000u      0.000s      0.002w     11 calls
| JK: D                             :      0.000u      0.000s      0.000w     11 calls
| JK: USO2AO                        :      0.000u      0.000s      0.000w     11 calls
| JK: JK                            :      0.000u      0.000s      0.001w     11 calls
| | DFH: compute_JK()               :      0.000u      0.000s      0.001w     11 calls
| | | DFH: Grabbing AOs             :      0.000u      0.000s      0.000w     11 calls
| | | DFH: compute_J                :      0.000u      0.000s      0.000w     11 calls
| | | DFH: compute_K                :      0.000u      0.000s      0.001w     11 calls
| JK: AO2USO                        :      0.000u      0.000s      0.000w     11 calls
HF: Form F                          :      0.000u      0.000s      0.000w     11 calls
HF: Form D                          :      0.000u      0.000s      0.000w     11 calls
HF: DIIS                            :      0.000u      0.000s      0.339w     10 calls
HF: Form C                          :      0.000u      0.000s      0.004w     10 calls

**************************************************************************************

Host: BEAST_MACHINE

Timers On : Tue Jun 30 00:00:37 2026
Timers Off: Tue Jun 30 00:00:39 2026

Wall Time:        1.23 seconds

                                                       Time (seconds)
Module                                       User      System        Wall        Calls
DFH: sparsity prep                  :      0.000u      0.000s      0.002w      1 calls
Libint2ERI::Libint2ERI              :      0.000u      0.000s      0.003w      3 calls
DFH: initialize()                   :      0.000u      0.000s      0.021w      1 calls
DFH: AO Construction                :      0.000u      0.000s      0.001w      1 calls
DFH: AO-Met. Contraction            :      0.000u      0.000s      0.000w      1 calls
HF: Form core H                     :      0.000u      0.000s      0.002w      1 calls
HF: Form S/X                        :      0.000u      0.000s      0.000w      1 calls
HF: Guess                           :      0.000u      0.000s      0.044w      1 calls
SAD Guess                           :      0.000u      0.000s      0.043w      1 calls
HF: Form G                          :      0.000u      0.000s      0.002w     11 calls
JK: D                               :      0.000u      0.000s      0.000w     11 calls
JK: USO2AO                          :      0.000u      0.000s      0.000w     11 calls
JK: JK                              :      0.000u      0.000s      0.001w     11 calls
DFH: compute_JK()                   :      0.000u      0.000s      0.001w     11 calls
DFH: Grabbing AOs                   :      0.000u      0.000s      0.000w     11 calls
DFH: compute_J                      :      0.000u      0.000s      0.000w     11 calls
DFH: compute_K                      :      0.000u      0.000s      0.001w     11 calls
JK: AO2USO                          :      0.000u      0.000s      0.000w     11 calls
HF: Form F                          :      0.000u      0.000s      0.000w     11 calls
HF: Form D                          :      0.000u      0.000s      0.000w     11 calls
HF: DIIS                            :      0.000u      0.000s      0.343w     10 calls
HF: Form C                          :      0.000u      0.000s      0.003w     10 calls

--------------------------------------------------------------------------------------
DFH: sparsity prep                  :      0.000u      0.000s      0.002w      1 calls
| Libint2ERI::Libint2ERI            :      0.000u      0.000s      0.001w      1 calls
DFH: initialize()                   :      0.000u      0.000s      0.021w      1 calls
| Libint2ERI::Libint2ERI            :      0.000u      0.000s      0.001w      2 calls
| DFH: AO Construction              :      0.000u      0.000s      0.001w      1 calls
| DFH: AO-Met. Contraction          :      0.000u      0.000s      0.000w      1 calls
HF: Form core H                     :      0.000u      0.000s      0.002w      1 calls
HF: Form S/X                        :      0.000u      0.000s      0.000w      1 calls
HF: Guess                           :      0.000u      0.000s      0.044w      1 calls
| SAD Guess                         :      0.000u      0.000s      0.043w      1 calls
HF: Form G                          :      0.000u      0.000s      0.002w     11 calls
| JK: D                             :      0.000u      0.000s      0.000w     11 calls
| JK: USO2AO                        :      0.000u      0.000s      0.000w     11 calls
| JK: JK                            :      0.000u      0.000s      0.001w     11 calls
| | DFH: compute_JK()               :      0.000u      0.000s      0.001w     11 calls
| | | DFH: Grabbing AOs             :      0.000u      0.000s      0.000w     11 calls
| | | DFH: compute_J                :      0.000u      0.000s      0.000w     11 calls
| | | DFH: compute_K                :      0.000u      0.000s      0.001w     11 calls
| JK: AO2USO                        :      0.000u      0.000s      0.000w     11 calls
HF: Form F                          :      0.000u      0.000s      0.000w     11 calls
HF: Form D                          :      0.000u      0.000s      0.000w     11 calls
HF: DIIS                            :      0.000u      0.000s      0.343w     10 calls
HF: Form C                          :      0.000u      0.000s      0.003w     10 calls

**************************************************************************************

Host: BEAST_MACHINE

Timers On : Tue Jun 30 00:03:32 2026
Timers Off: Tue Jun 30 00:03:34 2026

Wall Time:        1.28 seconds

                                                       Time (seconds)
Module                                       User      System        Wall        Calls
DFH: sparsity prep                  :      0.000u      0.000s      0.001w      1 calls
Libint2ERI::Libint2ERI              :      0.000u      0.000s      0.002w      3 calls
DFH: initialize()                   :      0.000u      0.000s      0.022w      1 calls
DFH: AO Construction                :      0.000u      0.000s      0.000w      1 calls
DFH: AO-Met. Contraction            :      0.000u      0.000s      0.000w      1 calls
HF: Form core H                     :      0.000u      0.000s      0.002w      1 calls
HF: Form S/X                        :      0.000u      0.000s      0.000w      1 calls
HF: Guess                           :      0.000u      0.000s      0.035w      1 calls
SAD Guess                           :      0.000u      0.000s      0.034w      1 calls
HF: Form G                          :      0.000u      0.000s      0.000w      8 calls
JK: D                               :      0.000u      0.000s      0.000w      8 calls
JK: USO2AO                          :      0.000u      0.000s      0.000w      8 calls
JK: JK                              :      0.000u      0.000s      0.000w      8 calls
DFH: compute_JK()                   :      0.000u      0.000s      0.000w      8 calls
DFH: Grabbing AOs                   :      0.000u      0.000s      0.000w      8 calls
DFH: compute_J                      :      0.000u      0.000s      0.000w      8 calls
DFH: compute_K                      :      0.000u      0.000s      0.000w      8 calls
JK: AO2USO                          :      0.000u      0.000s      0.000w      8 calls
HF: Form F                          :      0.000u      0.000s      0.000w      8 calls
HF: Form D                          :      0.000u      0.000s      0.000w      8 calls
HF: DIIS                            :      0.000u      0.000s      0.388w      7 calls
HF: Form C                          :      0.000u      0.000s      0.002w      7 calls

--------------------------------------------------------------------------------------
DFH: sparsity prep                  :      0.000u      0.000s      0.001w      1 calls
| Libint2ERI::Libint2ERI            :      0.000u      0.000s      0.001w      1 calls
DFH: initialize()                   :      0.000u      0.000s      0.022w      1 calls
| Libint2ERI::Libint2ERI            :      0.000u      0.000s      0.001w      2 calls
| DFH: AO Construction              :      0.000u      0.000s      0.000w      1 calls
| DFH: AO-Met. Contraction          :      0.000u      0.000s      0.000w      1 calls
HF: Form core H                     :      0.000u      0.000s      0.002w      1 calls
HF: Form S/X                        :      0.000u      0.000s      0.000w      1 calls
HF: Guess                           :      0.000u      0.000s      0.035w      1 calls
| SAD Guess                         :      0.000u      0.000s      0.034w      1 calls
HF: Form G                          :      0.000u      0.000s      0.000w      8 calls
| JK: D                             :      0.000u      0.000s      0.000w      8 calls
| JK: USO2AO                        :      0.000u      0.000s      0.000w      8 calls
| JK: JK                            :      0.000u      0.000s      0.000w      8 calls
| | DFH: compute_JK()               :      0.000u      0.000s      0.000w      8 calls
| | | DFH: Grabbing AOs             :      0.000u      0.000s      0.000w      8 calls
| | | DFH: compute_J                :      0.000u      0.000s      0.000w      8 calls
| | | DFH: compute_K                :      0.000u      0.000s      0.000w      8 calls
| JK: AO2USO                        :      0.000u      0.000s      0.000w      8 calls
HF: Form F                          :      0.000u      0.000s      0.000w      8 calls
HF: Form D                          :      0.000u      0.000s      0.000w      8 calls
HF: DIIS                            :      0.000u      0.000s      0.388w      7 calls
HF: Form C                          :      0.000u      0.000s      0.002w      7 calls

**************************************************************************************

Host: BEAST_MACHINE

Timers On : Tue Jun 30 00:06:14 2026
Timers Off: Tue Jun 30 00:06:16 2026

Wall Time:        1.31 seconds

                                                       Time (seconds)
Module                                       User      System        Wall        Calls
DFH: sparsity prep                  :      0.000u      0.000s      0.002w      1 calls
Libint2ERI::Libint2ERI              :      0.000u      0.000s      0.003w      3 calls
DFH: initialize()                   :      0.000u      0.000s      0.022w      1 calls
DFH: AO Construction                :      0.000u      0.000s      0.001w      1 calls
DFH: AO-Met. Contraction            :      0.000u      0.000s      0.000w      1 calls
HF: Form core H                     :      0.000u      0.000s      0.002w      1 calls
HF: Form S/X                        :      0.000u      0.000s      0.000w      1 calls
HF: Guess                           :      0.000u      0.000s      0.054w      1 calls
SAD Guess                           :      0.000u      0.000s      0.053w      1 calls
HF: Form G                          :      0.000u      0.000s      0.002w     11 calls
JK: D                               :      0.000u      0.000s      0.000w     11 calls
JK: USO2AO                          :      0.000u      0.000s      0.000w     11 calls
JK: JK                              :      0.000u      0.000s      0.002w     11 calls
DFH: compute_JK()                   :      0.000u      0.000s      0.002w     11 calls
DFH: Grabbing AOs                   :      0.000u      0.000s      0.000w     11 calls
DFH: compute_J                      :      0.000u      0.000s      0.000w     11 calls
DFH: compute_K                      :      0.000u      0.000s      0.001w     11 calls
JK: AO2USO                          :      0.000u      0.000s      0.000w     11 calls
HF: Form F                          :      0.000u      0.000s      0.000w     11 calls
HF: Form D                          :      0.000u      0.000s      0.000w     11 calls
HF: DIIS                            :      0.000u      0.000s      0.404w     10 calls
HF: Form C                          :      0.000u      0.000s      0.003w     10 calls

--------------------------------------------------------------------------------------
DFH: sparsity prep                  :      0.000u      0.000s      0.002w      1 calls
| Libint2ERI::Libint2ERI            :      0.000u      0.000s      0.002w      1 calls
DFH: initialize()                   :      0.000u      0.000s      0.022w      1 calls
| Libint2ERI::Libint2ERI            :      0.000u      0.000s      0.001w      2 calls
| DFH: AO Construction              :      0.000u      0.000s      0.001w      1 calls
| DFH: AO-Met. Contraction          :      0.000u      0.000s      0.000w      1 calls
HF: Form core H                     :      0.000u      0.000s      0.002w      1 calls
HF: Form S/X                        :      0.000u      0.000s      0.000w      1 calls
HF: Guess                           :      0.000u      0.000s      0.054w      1 calls
| SAD Guess                         :      0.000u      0.000s      0.053w      1 calls
HF: Form G                          :      0.000u      0.000s      0.002w     11 calls
| JK: D                             :      0.000u      0.000s      0.000w     11 calls
| JK: USO2AO                        :      0.000u      0.000s      0.000w     11 calls
| JK: JK                            :      0.000u      0.000s      0.002w     11 calls
| | DFH: compute_JK()               :      0.000u      0.000s      0.002w     11 calls
| | | DFH: Grabbing AOs             :      0.000u      0.000s      0.000w     11 calls
| | | DFH: compute_J                :      0.000u      0.000s      0.000w     11 calls
| | | DFH: compute_K                :      0.000u      0.000s      0.001w     11 calls
| JK: AO2USO                        :      0.000u      0.000s      0.000w     11 calls
HF: Form F                          :      0.000u      0.000s      0.000w     11 calls
HF: Form D                          :      0.000u      0.000s      0.000w     11 calls
HF: DIIS                            :      0.000u      0.000s      0.404w     10 calls
HF: Form C                          :      0.000u      0.000s      0.003w     10 calls

**************************************************************************************

Host: BEAST_MACHINE

Timers On : Tue Jun 30 00:09:59 2026
Timers Off: Tue Jun 30 00:10:00 2026

Wall Time:        1.19 seconds

                                                       Time (seconds)
Module                                       User      System        Wall        Calls
DFH: sparsity prep                  :      0.000u      0.000s      0.002w      1 calls
Libint2ERI::Libint2ERI              :      0.000u      0.000s      0.002w      3 calls
DFH: initialize()                   :      0.000u      0.000s      0.020w      1 calls
DFH: AO Construction                :      0.000u      0.000s      0.001w      1 calls
DFH: AO-Met. Contraction            :      0.000u      0.000s      0.001w      1 calls
HF: Form core H                     :      0.000u      0.000s      0.002w      1 calls
HF: Form S/X                        :      0.000u      0.000s      0.000w      1 calls
HF: Guess                           :      0.000u      0.000s      0.048w      1 calls
SAD Guess                           :      0.000u      0.000s      0.047w      1 calls
HF: Form G                          :      0.000u      0.000s      0.002w     11 calls
JK: D                               :      0.000u      0.000s      0.000w     11 calls
JK: USO2AO                          :      0.000u      0.000s      0.000w     11 calls
JK: JK                              :      0.000u      0.000s      0.002w     11 calls
DFH: compute_JK()                   :      0.000u      0.000s      0.002w     11 calls
DFH: Grabbing AOs                   :      0.000u      0.000s      0.000w     11 calls
DFH: compute_J                      :      0.000u      0.000s      0.000w     11 calls
DFH: compute_K                      :      0.000u      0.000s      0.001w     11 calls
JK: AO2USO                          :      0.000u      0.000s      0.000w     11 calls
HF: Form F                          :      0.000u      0.000s      0.000w     11 calls
HF: Form D                          :      0.000u      0.000s      0.000w     11 calls
HF: DIIS                            :      0.000u      0.000s      0.361w     10 calls
HF: Form C                          :      0.000u      0.000s      0.004w     10 calls

--------------------------------------------------------------------------------------
DFH: sparsity prep                  :      0.000u      0.000s      0.002w      1 calls
| Libint2ERI::Libint2ERI            :      0.000u      0.000s      0.001w      1 calls
DFH: initialize()                   :      0.000u      0.000s      0.020w      1 calls
| Libint2ERI::Libint2ERI            :      0.000u      0.000s      0.001w      2 calls
| DFH: AO Construction              :      0.000u      0.000s      0.001w      1 calls
| DFH: AO-Met. Contraction          :      0.000u      0.000s      0.001w      1 calls
HF: Form core H                     :      0.000u      0.000s      0.002w      1 calls
HF: Form S/X                        :      0.000u      0.000s      0.000w      1 calls
HF: Guess                           :      0.000u      0.000s      0.048w      1 calls
| SAD Guess                         :      0.000u      0.000s      0.047w      1 calls
HF: Form G                          :      0.000u      0.000s      0.002w     11 calls
| JK: D                             :      0.000u      0.000s      0.000w     11 calls
| JK: USO2AO                        :      0.000u      0.000s      0.000w     11 calls
| JK: JK                            :      0.000u      0.000s      0.002w     11 calls
| | DFH: compute_JK()               :      0.000u      0.000s      0.002w     11 calls
| | | DFH: Grabbing AOs             :      0.000u      0.000s      0.000w     11 calls
| | | DFH: compute_J                :      0.000u      0.000s      0.000w     11 calls
| | | DFH: compute_K                :      0.000u      0.000s      0.001w     11 calls
| JK: AO2USO                        :      0.000u      0.000s      0.000w     11 calls
HF: Form F                          :      0.000u      0.000s      0.000w     11 calls
HF: Form D                          :      0.000u      0.000s      0.000w     11 calls
HF: DIIS                            :      0.000u      0.000s      0.361w     10 calls
HF: Form C                          :      0.000u      0.000s      0.004w     10 calls

**************************************************************************************

Host: BEAST_MACHINE

Timers On : Tue Jun 30 00:12:03 2026
Timers Off: Tue Jun 30 00:12:05 2026

Wall Time:        1.30 seconds

                                                       Time (seconds)
Module                                       User      System        Wall        Calls
DFH: sparsity prep                  :      0.000u      0.000s      0.001w      1 calls
Libint2ERI::Libint2ERI              :      0.000u      0.000s      0.003w      3 calls
DFH: initialize()                   :      0.000u      0.000s      0.019w      1 calls
DFH: AO Construction                :      0.000u      0.000s      0.000w      1 calls
DFH: AO-Met. Contraction            :      0.000u      0.000s      0.000w      1 calls
HF: Form core H                     :      0.000u      0.000s      0.001w      1 calls
HF: Form S/X                        :      0.000u      0.000s      0.000w      1 calls
HF: Guess                           :      0.000u      0.000s      0.033w      1 calls
SAD Guess                           :      0.000u      0.000s      0.032w      1 calls
HF: Form G                          :      0.000u      0.000s      0.000w      8 calls
JK: D                               :      0.000u      0.000s      0.000w      8 calls
JK: USO2AO                          :      0.000u      0.000s      0.000w      8 calls
JK: JK                              :      0.000u      0.000s      0.000w      8 calls
DFH: compute_JK()                   :      0.000u      0.000s      0.000w      8 calls
DFH: Grabbing AOs                   :      0.000u      0.000s      0.000w      8 calls
DFH: compute_J                      :      0.000u      0.000s      0.000w      8 calls
DFH: compute_K                      :      0.000u      0.000s      0.000w      8 calls
JK: AO2USO                          :      0.000u      0.000s      0.000w      8 calls
HF: Form F                          :      0.000u      0.000s      0.000w      8 calls
HF: Form D                          :      0.000u      0.000s      0.000w      8 calls
HF: DIIS                            :      0.000u      0.000s      0.401w      7 calls
HF: Form C                          :      0.000u      0.000s      0.002w      7 calls

--------------------------------------------------------------------------------------
DFH: sparsity prep                  :      0.000u      0.000s      0.001w      1 calls
| Libint2ERI::Libint2ERI            :      0.000u      0.000s      0.001w      1 calls
DFH: initialize()                   :      0.000u      0.000s      0.019w      1 calls
| Libint2ERI::Libint2ERI            :      0.000u      0.000s      0.002w      2 calls
| DFH: AO Construction              :      0.000u      0.000s      0.000w      1 calls
| DFH: AO-Met. Contraction          :      0.000u      0.000s      0.000w      1 calls
HF: Form core H                     :      0.000u      0.000s      0.001w      1 calls
HF: Form S/X                        :      0.000u      0.000s      0.000w      1 calls
HF: Guess                           :      0.000u      0.000s      0.033w      1 calls
| SAD Guess                         :      0.000u      0.000s      0.032w      1 calls
HF: Form G                          :      0.000u      0.000s      0.000w      8 calls
| JK: D                             :      0.000u      0.000s      0.000w      8 calls
| JK: USO2AO                        :      0.000u      0.000s      0.000w      8 calls
| JK: JK                            :      0.000u      0.000s      0.000w      8 calls
| | DFH: compute_JK()               :      0.000u      0.000s      0.000w      8 calls
| | | DFH: Grabbing AOs             :      0.000u      0.000s      0.000w      8 calls
| | | DFH: compute_J                :      0.000u      0.000s      0.000w      8 calls
| | | DFH: compute_K                :      0.000u      0.000s      0.000w      8 calls
| JK: AO2USO                        :      0.000u      0.000s      0.000w      8 calls
HF: Form F                          :      0.000u      0.000s      0.000w      8 calls
HF: Form D                          :      0.000u      0.000s      0.000w      8 calls
HF: DIIS                            :      0.000u      0.000s      0.401w      7 calls
HF: Form C                          :      0.000u      0.000s      0.002w      7 calls

**************************************************************************************

Host: BEAST_MACHINE

Timers On : Tue Jun 30 00:14:35 2026
Timers Off: Tue Jun 30 00:14:36 2026

Wall Time:        1.32 seconds

                                                       Time (seconds)
Module                                       User      System        Wall        Calls
DFH: sparsity prep                  :      0.000u      0.000s      0.003w      1 calls
Libint2ERI::Libint2ERI              :      0.000u      0.000s      0.003w      3 calls
DFH: initialize()                   :      0.000u      0.000s      0.040w      1 calls
DFH: AO Construction                :      0.000u      0.000s      0.003w      1 calls
DFH: AO-Met. Contraction            :      0.000u      0.000s      0.002w      1 calls
HF: Form core H                     :      0.000u      0.000s      0.002w      1 calls
HF: Form S/X                        :      0.000u      0.000s      0.000w      1 calls
HF: Guess                           :      0.000u      0.000s      0.052w      1 calls
SAD Guess                           :      0.000u      0.000s      0.051w      1 calls
HF: Form G                          :      0.000u      0.000s      0.004w     10 calls
JK: D                               :      0.000u      0.000s      0.000w     10 calls
JK: USO2AO                          :      0.000u      0.000s      0.000w     10 calls
JK: JK                              :      0.000u      0.000s      0.004w     10 calls
DFH: compute_JK()                   :      0.000u      0.000s      0.004w     10 calls
DFH: Grabbing AOs                   :      0.000u      0.000s      0.000w     10 calls
DFH: compute_J                      :      0.000u      0.000s      0.001w     10 calls
DFH: compute_K                      :      0.000u      0.000s      0.002w     10 calls
JK: AO2USO                          :      0.000u      0.000s      0.000w     10 calls
HF: Form F                          :      0.000u      0.000s      0.000w     10 calls
HF: Form D                          :      0.000u      0.000s      0.000w     10 calls
HF: DIIS                            :      0.000u      0.000s      0.341w      9 calls
HF: Form C                          :      0.000u      0.000s      0.004w      9 calls

--------------------------------------------------------------------------------------
DFH: sparsity prep                  :      0.000u      0.000s      0.003w      1 calls
| Libint2ERI::Libint2ERI            :      0.000u      0.000s      0.002w      1 calls
DFH: initialize()                   :      0.000u      0.000s      0.040w      1 calls
| Libint2ERI::Libint2ERI            :      0.000u      0.000s      0.001w      2 calls
| DFH: AO Construction              :      0.000u      0.000s      0.003w      1 calls
| DFH: AO-Met. Contraction          :      0.000u      0.000s      0.002w      1 calls
HF: Form core H                     :      0.000u      0.000s      0.002w      1 calls
HF: Form S/X                        :      0.000u      0.000s      0.000w      1 calls
HF: Guess                           :      0.000u      0.000s      0.052w      1 calls
| SAD Guess                         :      0.000u      0.000s      0.051w      1 calls
HF: Form G                          :      0.000u      0.000s      0.004w     10 calls
| JK: D                             :      0.000u      0.000s      0.000w     10 calls
| JK: USO2AO                        :      0.000u      0.000s      0.000w     10 calls
| JK: JK                            :      0.000u      0.000s      0.004w     10 calls
| | DFH: compute_JK()               :      0.000u      0.000s      0.004w     10 calls
| | | DFH: Grabbing AOs             :      0.000u      0.000s      0.000w     10 calls
| | | DFH: compute_J                :      0.000u      0.000s      0.001w     10 calls
| | | DFH: compute_K                :      0.000u      0.000s      0.002w     10 calls
| JK: AO2USO                        :      0.000u      0.000s      0.000w     10 calls
HF: Form F                          :      0.000u      0.000s      0.000w     10 calls
HF: Form D                          :      0.000u      0.000s      0.000w     10 calls
HF: DIIS                            :      0.000u      0.000s      0.341w      9 calls
HF: Form C                          :      0.000u      0.000s      0.004w      9 calls

**************************************************************************************

Host: BEAST_MACHINE

Timers On : Tue Jun 30 00:16:29 2026
Timers Off: Tue Jun 30 00:16:30 2026

Wall Time:        1.16 seconds

                                                       Time (seconds)
Module                                       User      System        Wall        Calls
DFH: sparsity prep                  :      0.000u      0.000s      0.002w      1 calls
Libint2ERI::Libint2ERI              :      0.000u      0.000s      0.003w      3 calls
DFH: initialize()                   :      0.000u      0.000s      0.021w      1 calls
DFH: AO Construction                :      0.000u      0.000s      0.002w      1 calls
DFH: AO-Met. Contraction            :      0.000u      0.000s      0.001w      1 calls
HF: Form core H                     :      0.000u      0.000s      0.002w      1 calls
HF: Form S/X                        :      0.000u      0.000s      0.000w      1 calls
HF: Guess                           :      0.000u      0.000s      0.043w      1 calls
SAD Guess                           :      0.000u      0.000s      0.042w      1 calls
HF: Form G                          :      0.000u      0.000s      0.003w      9 calls
JK: D                               :      0.000u      0.000s      0.000w      9 calls
JK: USO2AO                          :      0.000u      0.000s      0.000w      9 calls
JK: JK                              :      0.000u      0.000s      0.003w      9 calls
DFH: compute_JK()                   :      0.000u      0.000s      0.003w      9 calls
DFH: Grabbing AOs                   :      0.000u      0.000s      0.000w      9 calls
DFH: compute_J                      :      0.000u      0.000s      0.001w      9 calls
DFH: compute_K                      :      0.000u      0.000s      0.001w      9 calls
JK: AO2USO                          :      0.000u      0.000s      0.000w      9 calls
HF: Form F                          :      0.000u      0.000s      0.000w      9 calls
HF: Form D                          :      0.000u      0.000s      0.000w      9 calls
HF: DIIS                            :      0.000u      0.000s      0.301w      8 calls
HF: Form C                          :      0.000u      0.000s      0.004w      8 calls

--------------------------------------------------------------------------------------
DFH: sparsity prep                  :      0.000u      0.000s      0.002w      1 calls
| Libint2ERI::Libint2ERI            :      0.000u      0.000s      0.002w      1 calls
DFH: initialize()                   :      0.000u      0.000s      0.021w      1 calls
| Libint2ERI::Libint2ERI            :      0.000u      0.000s      0.001w      2 calls
| DFH: AO Construction              :      0.000u      0.000s      0.002w      1 calls
| DFH: AO-Met. Contraction          :      0.000u      0.000s      0.001w      1 calls
HF: Form core H                     :      0.000u      0.000s      0.002w      1 calls
HF: Form S/X                        :      0.000u      0.000s      0.000w      1 calls
HF: Guess                           :      0.000u      0.000s      0.043w      1 calls
| SAD Guess                         :      0.000u      0.000s      0.042w      1 calls
HF: Form G                          :      0.000u      0.000s      0.003w      9 calls
| JK: D                             :      0.000u      0.000s      0.000w      9 calls
| JK: USO2AO                        :      0.000u      0.000s      0.000w      9 calls
| JK: JK                            :      0.000u      0.000s      0.003w      9 calls
| | DFH: compute_JK()               :      0.000u      0.000s      0.003w      9 calls
| | | DFH: Grabbing AOs             :      0.000u      0.000s      0.000w      9 calls
| | | DFH: compute_J                :      0.000u      0.000s      0.001w      9 calls
| | | DFH: compute_K                :      0.000u      0.000s      0.001w      9 calls
| JK: AO2USO                        :      0.000u      0.000s      0.000w      9 calls
HF: Form F                          :      0.000u      0.000s      0.000w      9 calls
HF: Form D                          :      0.000u      0.000s      0.000w      9 calls
HF: DIIS                            :      0.000u      0.000s      0.301w      8 calls
HF: Form C                          :      0.000u      0.000s      0.004w      8 calls

**************************************************************************************

Host: BEAST_MACHINE

Timers On : Tue Jun 30 00:25:44 2026
Timers Off: Tue Jun 30 00:25:45 2026

Wall Time:        1.37 seconds

                                                       Time (seconds)
Module                                       User      System        Wall        Calls
DFH: sparsity prep                  :      0.000u      0.000s      0.002w      1 calls
Libint2ERI::Libint2ERI              :      0.000u      0.000s      0.003w      3 calls
DFH: initialize()                   :      0.000u      0.000s      0.022w      1 calls
DFH: AO Construction                :      0.000u      0.000s      0.000w      1 calls
DFH: AO-Met. Contraction            :      0.000u      0.000s      0.000w      1 calls
HF: Form core H                     :      0.000u      0.000s      0.001w      1 calls
HF: Form S/X                        :      0.000u      0.000s      0.000w      1 calls
HF: Guess                           :      0.000u      0.000s      0.056w      1 calls
SAD Guess                           :      0.000u      0.000s      0.055w      1 calls
HF: Form G                          :      0.000u      0.000s      0.000w      7 calls
JK: D                               :      0.000u      0.000s      0.000w      7 calls
JK: USO2AO                          :      0.000u      0.000s      0.000w      7 calls
JK: JK                              :      0.000u      0.000s      0.000w      7 calls
DFH: compute_JK()                   :      0.000u      0.000s      0.000w      7 calls
DFH: Grabbing AOs                   :      0.000u      0.000s      0.000w      7 calls
DFH: compute_J                      :      0.000u      0.000s      0.000w      7 calls
DFH: compute_K                      :      0.000u      0.000s      0.000w      7 calls
JK: AO2USO                          :      0.000u      0.000s      0.000w      7 calls
HF: Form F                          :      0.000u      0.000s      0.000w      7 calls
HF: Form D                          :      0.000u      0.000s      0.000w      7 calls
HF: DIIS                            :      0.000u      0.000s      0.360w      6 calls
HF: Form C                          :      0.000u      0.000s      0.002w      6 calls

--------------------------------------------------------------------------------------
DFH: sparsity prep                  :      0.000u      0.000s      0.002w      1 calls
| Libint2ERI::Libint2ERI            :      0.000u      0.000s      0.001w      1 calls
DFH: initialize()                   :      0.000u      0.000s      0.022w      1 calls
| Libint2ERI::Libint2ERI            :      0.000u      0.000s      0.001w      2 calls
| DFH: AO Construction              :      0.000u      0.000s      0.000w      1 calls
| DFH: AO-Met. Contraction          :      0.000u      0.000s      0.000w      1 calls
HF: Form core H                     :      0.000u      0.000s      0.001w      1 calls
HF: Form S/X                        :      0.000u      0.000s      0.000w      1 calls
HF: Guess                           :      0.000u      0.000s      0.056w      1 calls
| SAD Guess                         :      0.000u      0.000s      0.055w      1 calls
HF: Form G                          :      0.000u      0.000s      0.000w      7 calls
| JK: D                             :      0.000u      0.000s      0.000w      7 calls
| JK: USO2AO                        :      0.000u      0.000s      0.000w      7 calls
| JK: JK                            :      0.000u      0.000s      0.000w      7 calls
| | DFH: compute_JK()               :      0.000u      0.000s      0.000w      7 calls
| | | DFH: Grabbing AOs             :      0.000u      0.000s      0.000w      7 calls
| | | DFH: compute_J                :      0.000u      0.000s      0.000w      7 calls
| | | DFH: compute_K                :      0.000u      0.000s      0.000w      7 calls
| JK: AO2USO                        :      0.000u      0.000s      0.000w      7 calls
HF: Form F                          :      0.000u      0.000s      0.000w      7 calls
HF: Form D                          :      0.000u      0.000s      0.000w      7 calls
HF: DIIS                            :      0.000u      0.000s      0.360w      6 calls
HF: Form C                          :      0.000u      0.000s      0.002w      6 calls

**************************************************************************************

Host: BEAST_MACHINE

Timers On : Tue Jun 30 00:29:26 2026
Timers Off: Tue Jun 30 00:29:27 2026

Wall Time:        0.58 seconds

                                                       Time (seconds)
Module                                       User      System        Wall        Calls

--------------------------------------------------------------------------------------

**************************************************************************************

Host: BEAST_MACHINE

Timers On : Tue Jun 30 00:29:33 2026
Timers Off: Tue Jun 30 00:29:35 2026

Wall Time:        1.62 seconds

                                                       Time (seconds)
Module                                       User      System        Wall        Calls
DFH: sparsity prep                  :      0.000u      0.000s      0.001w      1 calls
Libint2ERI::Libint2ERI              :      0.000u      0.000s      0.002w      3 calls
DFH: initialize()                   :      0.000u      0.000s      0.019w      1 calls
DFH: AO Construction                :      0.000u      0.000s      0.001w      1 calls
DFH: AO-Met. Contraction            :      0.000u      0.000s      0.000w      1 calls
HF: Form core H                     :      0.000u      0.000s      0.001w      1 calls
HF: Form S/X                        :      0.000u      0.000s      0.000w      1 calls
HF: Guess                           :      0.000u      0.000s      0.047w      1 calls
SAD Guess                           :      0.000u      0.000s      0.046w      1 calls
HF: Form G                          :      0.000u      0.000s      0.004w    101 calls
JK: D                               :      0.000u      0.000s      0.000w    101 calls
JK: USO2AO                          :      0.000u      0.000s      0.000w    101 calls
JK: JK                              :      0.000u      0.000s      0.003w    101 calls
DFH: compute_JK()                   :      0.000u      0.000s      0.003w    101 calls
DFH: Grabbing AOs                   :      0.000u      0.000s      0.000w    101 calls
DFH: compute_J                      :      0.000u      0.000s      0.001w    101 calls
DFH: compute_K                      :      0.000u      0.000s      0.001w    101 calls
JK: AO2USO                          :      0.000u      0.000s      0.000w    101 calls
HF: Form F                          :      0.000u      0.000s      0.000w    101 calls
HF: Form D                          :      0.000u      0.000s      0.000w    101 calls
HF: DIIS                            :      0.000u      0.000s      0.600w    100 calls
HF: Form C                          :      0.000u      0.000s      0.026w    100 calls

--------------------------------------------------------------------------------------
DFH: sparsity prep                  :      0.000u      0.000s      0.001w      1 calls
| Libint2ERI::Libint2ERI            :      0.000u      0.000s      0.001w      1 calls
DFH: initialize()                   :      0.000u      0.000s      0.019w      1 calls
| Libint2ERI::Libint2ERI            :      0.000u      0.000s      0.001w      2 calls
| DFH: AO Construction              :      0.000u      0.000s      0.001w      1 calls
| DFH: AO-Met. Contraction          :      0.000u      0.000s      0.000w      1 calls
HF: Form core H                     :      0.000u      0.000s      0.001w      1 calls
HF: Form S/X                        :      0.000u      0.000s      0.000w      1 calls
HF: Guess                           :      0.000u      0.000s      0.047w      1 calls
| SAD Guess                         :      0.000u      0.000s      0.046w      1 calls
HF: Form G                          :      0.000u      0.000s      0.004w    101 calls
| JK: D                             :      0.000u      0.000s      0.000w    101 calls
| JK: USO2AO                        :      0.000u      0.000s      0.000w    101 calls
| JK: JK                            :      0.000u      0.000s      0.003w    101 calls
| | DFH: compute_JK()               :      0.000u      0.000s      0.003w    101 calls
| | | DFH: Grabbing AOs             :      0.000u      0.000s      0.000w    101 calls
| | | DFH: compute_J                :      0.000u      0.000s      0.001w    101 calls
| | | DFH: compute_K                :      0.000u      0.000s      0.001w    101 calls
| JK: AO2USO                        :      0.000u      0.000s      0.000w    101 calls
HF: Form F                          :      0.000u      0.000s      0.000w    101 calls
HF: Form D                          :      0.000u      0.000s      0.000w    101 calls
HF: DIIS                            :      0.000u      0.000s      0.600w    100 calls
HF: Form C                          :      0.000u      0.000s      0.026w    100 calls

**************************************************************************************

Host: BEAST_MACHINE

Timers On : Tue Jun 30 00:29:48 2026
Timers Off: Tue Jun 30 00:29:49 2026

Wall Time:        1.18 seconds

                                                       Time (seconds)
Module                                       User      System        Wall        Calls
DFH: sparsity prep                  :      0.000u      0.000s      0.001w      1 calls
Libint2ERI::Libint2ERI              :      0.000u      0.000s      0.002w      3 calls
DFH: initialize()                   :      0.000u      0.000s      0.024w      1 calls
DFH: AO Construction                :      0.000u      0.000s      0.001w      1 calls
DFH: AO-Met. Contraction            :      0.000u      0.000s      0.000w      1 calls
HF: Form core H                     :      0.000u      0.000s      0.001w      1 calls
HF: Form S/X                        :      0.000u      0.000s      0.000w      1 calls
HF: Guess                           :      0.000u      0.000s      0.051w      1 calls
SAD Guess                           :      0.000u      0.000s      0.050w      1 calls
HF: Form G                          :      0.000u      0.000s      0.000w      6 calls
JK: D                               :      0.000u      0.000s      0.000w      6 calls
JK: USO2AO                          :      0.000u      0.000s      0.000w      6 calls
JK: JK                              :      0.000u      0.000s      0.000w      6 calls
DFH: compute_JK()                   :      0.000u      0.000s      0.000w      6 calls
DFH: Grabbing AOs                   :      0.000u      0.000s      0.000w      6 calls
DFH: compute_J                      :      0.000u      0.000s      0.000w      6 calls
DFH: compute_K                      :      0.000u      0.000s      0.000w      6 calls
JK: AO2USO                          :      0.000u      0.000s      0.000w      6 calls
HF: Form F                          :      0.000u      0.000s      0.000w      6 calls
HF: Form D                          :      0.000u      0.000s      0.000w      6 calls
HF: DIIS                            :      0.000u      0.000s      0.303w      5 calls
HF: Form C                          :      0.000u      0.000s      0.001w      5 calls

--------------------------------------------------------------------------------------
DFH: sparsity prep                  :      0.000u      0.000s      0.001w      1 calls
| Libint2ERI::Libint2ERI            :      0.000u      0.000s      0.001w      1 calls
DFH: initialize()                   :      0.000u      0.000s      0.024w      1 calls
| Libint2ERI::Libint2ERI            :      0.000u      0.000s      0.001w      2 calls
| DFH: AO Construction              :      0.000u      0.000s      0.001w      1 calls
| DFH: AO-Met. Contraction          :      0.000u      0.000s      0.000w      1 calls
HF: Form core H                     :      0.000u      0.000s      0.001w      1 calls
HF: Form S/X                        :      0.000u      0.000s      0.000w      1 calls
HF: Guess                           :      0.000u      0.000s      0.051w      1 calls
| SAD Guess                         :      0.000u      0.000s      0.050w      1 calls
HF: Form G                          :      0.000u      0.000s      0.000w      6 calls
| JK: D                             :      0.000u      0.000s      0.000w      6 calls
| JK: USO2AO                        :      0.000u      0.000s      0.000w      6 calls
| JK: JK                            :      0.000u      0.000s      0.000w      6 calls
| | DFH: compute_JK()               :      0.000u      0.000s      0.000w      6 calls
| | | DFH: Grabbing AOs             :      0.000u      0.000s      0.000w      6 calls
| | | DFH: compute_J                :      0.000u      0.000s      0.000w      6 calls
| | | DFH: compute_K                :      0.000u      0.000s      0.000w      6 calls
| JK: AO2USO                        :      0.000u      0.000s      0.000w      6 calls
HF: Form F                          :      0.000u      0.000s      0.000w      6 calls
HF: Form D                          :      0.000u      0.000s      0.000w      6 calls
HF: DIIS                            :      0.000u      0.000s      0.303w      5 calls
HF: Form C                          :      0.000u      0.000s      0.001w      5 calls

**************************************************************************************

Host: BEAST_MACHINE

Timers On : Tue Jun 30 00:30:14 2026
Timers Off: Tue Jun 30 00:30:15 2026

Wall Time:        1.09 seconds

                                                       Time (seconds)
Module                                       User      System        Wall        Calls
DFH: sparsity prep                  :      0.000u      0.000s      0.001w      1 calls
Libint2ERI::Libint2ERI              :      0.000u      0.000s      0.002w      3 calls
DFH: initialize()                   :      0.000u      0.000s      0.024w      1 calls
DFH: AO Construction                :      0.000u      0.000s      0.001w      1 calls
DFH: AO-Met. Contraction            :      0.000u      0.000s      0.000w      1 calls
HF: Form core H                     :      0.000u      0.000s      0.001w      1 calls
HF: Form S/X                        :      0.000u      0.000s      0.000w      1 calls
HF: Guess                           :      0.000u      0.000s      0.032w      1 calls
SAD Guess                           :      0.000u      0.000s      0.031w      1 calls
HF: Form G                          :      0.000u      0.000s      0.000w      6 calls
JK: D                               :      0.000u      0.000s      0.000w      6 calls
JK: USO2AO                          :      0.000u      0.000s      0.000w      6 calls
JK: JK                              :      0.000u      0.000s      0.000w      6 calls
DFH: compute_JK()                   :      0.000u      0.000s      0.000w      6 calls
DFH: Grabbing AOs                   :      0.000u      0.000s      0.000w      6 calls
DFH: compute_J                      :      0.000u      0.000s      0.000w      6 calls
DFH: compute_K                      :      0.000u      0.000s      0.000w      6 calls
JK: AO2USO                          :      0.000u      0.000s      0.000w      6 calls
HF: Form F                          :      0.000u      0.000s      0.000w      6 calls
HF: Form D                          :      0.000u      0.000s      0.000w      6 calls
HF: DIIS                            :      0.000u      0.000s      0.292w      5 calls
HF: Form C                          :      0.000u      0.000s      0.001w      5 calls

--------------------------------------------------------------------------------------
DFH: sparsity prep                  :      0.000u      0.000s      0.001w      1 calls
| Libint2ERI::Libint2ERI            :      0.000u      0.000s      0.001w      1 calls
DFH: initialize()                   :      0.000u      0.000s      0.024w      1 calls
| Libint2ERI::Libint2ERI            :      0.000u      0.000s      0.001w      2 calls
| DFH: AO Construction              :      0.000u      0.000s      0.001w      1 calls
| DFH: AO-Met. Contraction          :      0.000u      0.000s      0.000w      1 calls
HF: Form core H                     :      0.000u      0.000s      0.001w      1 calls
HF: Form S/X                        :      0.000u      0.000s      0.000w      1 calls
HF: Guess                           :      0.000u      0.000s      0.032w      1 calls
| SAD Guess                         :      0.000u      0.000s      0.031w      1 calls
HF: Form G                          :      0.000u      0.000s      0.000w      6 calls
| JK: D                             :      0.000u      0.000s      0.000w      6 calls
| JK: USO2AO                        :      0.000u      0.000s      0.000w      6 calls
| JK: JK                            :      0.000u      0.000s      0.000w      6 calls
| | DFH: compute_JK()               :      0.000u      0.000s      0.000w      6 calls
| | | DFH: Grabbing AOs             :      0.000u      0.000s      0.000w      6 calls
| | | DFH: compute_J                :      0.000u      0.000s      0.000w      6 calls
| | | DFH: compute_K                :      0.000u      0.000s      0.000w      6 calls
| JK: AO2USO                        :      0.000u      0.000s      0.000w      6 calls
HF: Form F                          :      0.000u      0.000s      0.000w      6 calls
HF: Form D                          :      0.000u      0.000s      0.000w      6 calls
HF: DIIS                            :      0.000u      0.000s      0.292w      5 calls
HF: Form C                          :      0.000u      0.000s      0.001w      5 calls

**************************************************************************************

Host: BEAST_MACHINE

Timers On : Tue Jun 30 00:33:41 2026
Timers Off: Tue Jun 30 00:33:42 2026

Wall Time:        1.38 seconds

                                                       Time (seconds)
Module                                       User      System        Wall        Calls
DFH: sparsity prep                  :      0.000u      0.000s      0.002w      1 calls
Libint2ERI::Libint2ERI              :      0.000u      0.000s      0.003w      3 calls
DFH: initialize()                   :      0.000u      0.000s      0.025w      1 calls
DFH: AO Construction                :      0.000u      0.000s      0.002w      1 calls
DFH: AO-Met. Contraction            :      0.000u      0.000s      0.001w      1 calls
HF: Form core H                     :      0.000u      0.000s      0.003w      1 calls
HF: Form S/X                        :      0.000u      0.000s      0.000w      1 calls
HF: Guess                           :      0.000u      0.000s      0.055w      1 calls
SAD Guess                           :      0.000u      0.000s      0.053w      1 calls
HF: Form G                          :      0.000u      0.000s      0.003w      9 calls
JK: D                               :      0.000u      0.000s      0.000w      9 calls
JK: USO2AO                          :      0.000u      0.000s      0.000w      9 calls
JK: JK                              :      0.000u      0.000s      0.003w      9 calls
DFH: compute_JK()                   :      0.000u      0.000s      0.003w      9 calls
DFH: Grabbing AOs                   :      0.000u      0.000s      0.000w      9 calls
DFH: compute_J                      :      0.000u      0.000s      0.001w      9 calls
DFH: compute_K                      :      0.000u      0.000s      0.002w      9 calls
JK: AO2USO                          :      0.000u      0.000s      0.000w      9 calls
HF: Form F                          :      0.000u      0.000s      0.000w      9 calls
HF: Form D                          :      0.000u      0.000s      0.000w      9 calls
HF: DIIS                            :      0.000u      0.000s      0.372w      8 calls
HF: Form C                          :      0.000u      0.000s      0.004w      8 calls

--------------------------------------------------------------------------------------
DFH: sparsity prep                  :      0.000u      0.000s      0.002w      1 calls
| Libint2ERI::Libint2ERI            :      0.000u      0.000s      0.002w      1 calls
DFH: initialize()                   :      0.000u      0.000s      0.025w      1 calls
| Libint2ERI::Libint2ERI            :      0.000u      0.000s      0.001w      2 calls
| DFH: AO Construction              :      0.000u      0.000s      0.002w      1 calls
| DFH: AO-Met. Contraction          :      0.000u      0.000s      0.001w      1 calls
HF: Form core H                     :      0.000u      0.000s      0.003w      1 calls
HF: Form S/X                        :      0.000u      0.000s      0.000w      1 calls
HF: Guess                           :      0.000u      0.000s      0.055w      1 calls
| SAD Guess                         :      0.000u      0.000s      0.053w      1 calls
HF: Form G                          :      0.000u      0.000s      0.003w      9 calls
| JK: D                             :      0.000u      0.000s      0.000w      9 calls
| JK: USO2AO                        :      0.000u      0.000s      0.000w      9 calls
| JK: JK                            :      0.000u      0.000s      0.003w      9 calls
| | DFH: compute_JK()               :      0.000u      0.000s      0.003w      9 calls
| | | DFH: Grabbing AOs             :      0.000u      0.000s      0.000w      9 calls
| | | DFH: compute_J                :      0.000u      0.000s      0.001w      9 calls
| | | DFH: compute_K                :      0.000u      0.000s      0.002w      9 calls
| JK: AO2USO                        :      0.000u      0.000s      0.000w      9 calls
HF: Form F                          :      0.000u      0.000s      0.000w      9 calls
HF: Form D                          :      0.000u      0.000s      0.000w      9 calls
HF: DIIS                            :      0.000u      0.000s      0.372w      8 calls
HF: Form C                          :      0.000u      0.000s      0.004w      8 calls

**************************************************************************************

Host: BEAST_MACHINE

Timers On : Tue Jun 30 00:39:34 2026
Timers Off: Tue Jun 30 00:39:35 2026

Wall Time:        1.36 seconds

                                                       Time (seconds)
Module                                       User      System        Wall        Calls
DFH: sparsity prep                  :      0.000u      0.000s      0.002w      1 calls
Libint2ERI::Libint2ERI              :      0.000u      0.000s      0.002w      3 calls
DFH: initialize()                   :      0.000u      0.000s      0.034w      1 calls
DFH: AO Construction                :      0.000u      0.000s      0.001w      1 calls
DFH: AO-Met. Contraction            :      0.000u      0.000s      0.000w      1 calls
HF: Form core H                     :      0.000u      0.000s      0.002w      1 calls
HF: Form S/X                        :      0.000u      0.000s      0.000w      1 calls
HF: Guess                           :      0.000u      0.000s      0.043w      1 calls
SAD Guess                           :      0.000u      0.000s      0.042w      1 calls
HF: Form G                          :      0.000u      0.000s      0.000w      6 calls
JK: D                               :      0.000u      0.000s      0.000w      6 calls
JK: USO2AO                          :      0.000u      0.000s      0.000w      6 calls
JK: JK                              :      0.000u      0.000s      0.000w      6 calls
DFH: compute_JK()                   :      0.000u      0.000s      0.000w      6 calls
DFH: Grabbing AOs                   :      0.000u      0.000s      0.000w      6 calls
DFH: compute_J                      :      0.000u      0.000s      0.000w      6 calls
DFH: compute_K                      :      0.000u      0.000s      0.000w      6 calls
JK: AO2USO                          :      0.000u      0.000s      0.000w      6 calls
HF: Form F                          :      0.000u      0.000s      0.000w      6 calls
HF: Form D                          :      0.000u      0.000s      0.000w      6 calls
HF: DIIS                            :      0.000u      0.000s      0.396w      5 calls
HF: Form C                          :      0.000u      0.000s      0.002w      5 calls

--------------------------------------------------------------------------------------
DFH: sparsity prep                  :      0.000u      0.000s      0.002w      1 calls
| Libint2ERI::Libint2ERI            :      0.000u      0.000s      0.001w      1 calls
DFH: initialize()                   :      0.000u      0.000s      0.034w      1 calls
| Libint2ERI::Libint2ERI            :      0.000u      0.000s      0.001w      2 calls
| DFH: AO Construction              :      0.000u      0.000s      0.001w      1 calls
| DFH: AO-Met. Contraction          :      0.000u      0.000s      0.000w      1 calls
HF: Form core H                     :      0.000u      0.000s      0.002w      1 calls
HF: Form S/X                        :      0.000u      0.000s      0.000w      1 calls
HF: Guess                           :      0.000u      0.000s      0.043w      1 calls
| SAD Guess                         :      0.000u      0.000s      0.042w      1 calls
HF: Form G                          :      0.000u      0.000s      0.000w      6 calls
| JK: D                             :      0.000u      0.000s      0.000w      6 calls
| JK: USO2AO                        :      0.000u      0.000s      0.000w      6 calls
| JK: JK                            :      0.000u      0.000s      0.000w      6 calls
| | DFH: compute_JK()               :      0.000u      0.000s      0.000w      6 calls
| | | DFH: Grabbing AOs             :      0.000u      0.000s      0.000w      6 calls
| | | DFH: compute_J                :      0.000u      0.000s      0.000w      6 calls
| | | DFH: compute_K                :      0.000u      0.000s      0.000w      6 calls
| JK: AO2USO                        :      0.000u      0.000s      0.000w      6 calls
HF: Form F                          :      0.000u      0.000s      0.000w      6 calls
HF: Form D                          :      0.000u      0.000s      0.000w      6 calls
HF: DIIS                            :      0.000u      0.000s      0.396w      5 calls
HF: Form C                          :      0.000u      0.000s      0.002w      5 calls

**************************************************************************************

Host: BEAST_MACHINE

Timers On : Tue Jun 30 00:39:51 2026
Timers Off: Tue Jun 30 00:39:52 2026

Wall Time:        1.22 seconds

                                                       Time (seconds)
Module                                       User      System        Wall        Calls
DFH: sparsity prep                  :      0.000u      0.000s      0.001w      1 calls
Libint2ERI::Libint2ERI              :      0.000u      0.000s      0.002w      3 calls
DFH: initialize()                   :      0.000u      0.000s      0.020w      1 calls
DFH: AO Construction                :      0.000u      0.000s      0.000w      1 calls
DFH: AO-Met. Contraction            :      0.000u      0.000s      0.000w      1 calls
HF: Form core H                     :      0.000u      0.000s      0.001w      1 calls
HF: Form S/X                        :      0.000u      0.000s      0.000w      1 calls
HF: Guess                           :      0.000u      0.000s      0.047w      1 calls
SAD Guess                           :      0.000u      0.000s      0.046w      1 calls
HF: Form G                          :      0.000u      0.000s      0.000w     10 calls
JK: D                               :      0.000u      0.000s      0.000w     10 calls
JK: USO2AO                          :      0.000u      0.000s      0.000w     10 calls
JK: JK                              :      0.000u      0.000s      0.000w     10 calls
DFH: compute_JK()                   :      0.000u      0.000s      0.000w     10 calls
DFH: Grabbing AOs                   :      0.000u      0.000s      0.000w     10 calls
DFH: compute_J                      :      0.000u      0.000s      0.000w     10 calls
DFH: compute_K                      :      0.000u      0.000s      0.000w     10 calls
JK: AO2USO                          :      0.000u      0.000s      0.000w     10 calls
HF: Form F                          :      0.000u      0.000s      0.000w     10 calls
HF: Form D                          :      0.000u      0.000s      0.000w     10 calls
HF: DIIS                            :      0.000u      0.000s      0.327w      9 calls
HF: Form C                          :      0.000u      0.000s      0.002w      9 calls

--------------------------------------------------------------------------------------
DFH: sparsity prep                  :      0.000u      0.000s      0.001w      1 calls
| Libint2ERI::Libint2ERI            :      0.000u      0.000s      0.001w      1 calls
DFH: initialize()                   :      0.000u      0.000s      0.020w      1 calls
| Libint2ERI::Libint2ERI            :      0.000u      0.000s      0.001w      2 calls
| DFH: AO Construction              :      0.000u      0.000s      0.000w      1 calls
| DFH: AO-Met. Contraction          :      0.000u      0.000s      0.000w      1 calls
HF: Form core H                     :      0.000u      0.000s      0.001w      1 calls
HF: Form S/X                        :      0.000u      0.000s      0.000w      1 calls
HF: Guess                           :      0.000u      0.000s      0.047w      1 calls
| SAD Guess                         :      0.000u      0.000s      0.046w      1 calls
HF: Form G                          :      0.000u      0.000s      0.000w     10 calls
| JK: D                             :      0.000u      0.000s      0.000w     10 calls
| JK: USO2AO                        :      0.000u      0.000s      0.000w     10 calls
| JK: JK                            :      0.000u      0.000s      0.000w     10 calls
| | DFH: compute_JK()               :      0.000u      0.000s      0.000w     10 calls
| | | DFH: Grabbing AOs             :      0.000u      0.000s      0.000w     10 calls
| | | DFH: compute_J                :      0.000u      0.000s      0.000w     10 calls
| | | DFH: compute_K                :      0.000u      0.000s      0.000w     10 calls
| JK: AO2USO                        :      0.000u      0.000s      0.000w     10 calls
HF: Form F                          :      0.000u      0.000s      0.000w     10 calls
HF: Form D                          :      0.000u      0.000s      0.000w     10 calls
HF: DIIS                            :      0.000u      0.000s      0.327w      9 calls
HF: Form C                          :      0.000u      0.000s      0.002w      9 calls

**************************************************************************************

Host: BEAST_MACHINE

Timers On : Tue Jun 30 00:41:49 2026
Timers Off: Tue Jun 30 00:41:51 2026

Wall Time:        1.33 seconds

                                                       Time (seconds)
Module                                       User      System        Wall        Calls
DFH: sparsity prep                  :      0.000u      0.000s      0.002w      1 calls
Libint2ERI::Libint2ERI              :      0.000u      0.000s      0.003w      3 calls
DFH: initialize()                   :      0.000u      0.000s      0.022w      1 calls
DFH: AO Construction                :      0.000u      0.000s      0.002w      1 calls
DFH: AO-Met. Contraction            :      0.000u      0.000s      0.001w      1 calls
HF: Form core H                     :      0.000u      0.000s      0.002w      1 calls
HF: Form S/X                        :      0.000u      0.000s      0.000w      1 calls
HF: Guess                           :      0.000u      0.000s      0.053w      1 calls
SAD Guess                           :      0.000u      0.000s      0.051w      1 calls
HF: Form G                          :      0.000u      0.000s      0.003w      9 calls
JK: D                               :      0.000u      0.000s      0.000w      9 calls
JK: USO2AO                          :      0.000u      0.000s      0.000w      9 calls
JK: JK                              :      0.000u      0.000s      0.002w      9 calls
DFH: compute_JK()                   :      0.000u      0.000s      0.002w      9 calls
DFH: Grabbing AOs                   :      0.000u      0.000s      0.000w      9 calls
DFH: compute_J                      :      0.000u      0.000s      0.001w      9 calls
DFH: compute_K                      :      0.000u      0.000s      0.001w      9 calls
JK: AO2USO                          :      0.000u      0.000s      0.000w      9 calls
HF: Form F                          :      0.000u      0.000s      0.000w      9 calls
HF: Form D                          :      0.000u      0.000s      0.000w      9 calls
HF: DIIS                            :      0.000u      0.000s      0.345w      8 calls
HF: Form C                          :      0.000u      0.000s      0.004w      8 calls

--------------------------------------------------------------------------------------
DFH: sparsity prep                  :      0.000u      0.000s      0.002w      1 calls
| Libint2ERI::Libint2ERI            :      0.000u      0.000s      0.002w      1 calls
DFH: initialize()                   :      0.000u      0.000s      0.022w      1 calls
| Libint2ERI::Libint2ERI            :      0.000u      0.000s      0.001w      2 calls
| DFH: AO Construction              :      0.000u      0.000s      0.002w      1 calls
| DFH: AO-Met. Contraction          :      0.000u      0.000s      0.001w      1 calls
HF: Form core H                     :      0.000u      0.000s      0.002w      1 calls
HF: Form S/X                        :      0.000u      0.000s      0.000w      1 calls
HF: Guess                           :      0.000u      0.000s      0.053w      1 calls
| SAD Guess                         :      0.000u      0.000s      0.051w      1 calls
HF: Form G                          :      0.000u      0.000s      0.003w      9 calls
| JK: D                             :      0.000u      0.000s      0.000w      9 calls
| JK: USO2AO                        :      0.000u      0.000s      0.000w      9 calls
| JK: JK                            :      0.000u      0.000s      0.002w      9 calls
| | DFH: compute_JK()               :      0.000u      0.000s      0.002w      9 calls
| | | DFH: Grabbing AOs             :      0.000u      0.000s      0.000w      9 calls
| | | DFH: compute_J                :      0.000u      0.000s      0.001w      9 calls
| | | DFH: compute_K                :      0.000u      0.000s      0.001w      9 calls
| JK: AO2USO                        :      0.000u      0.000s      0.000w      9 calls
HF: Form F                          :      0.000u      0.000s      0.000w      9 calls
HF: Form D                          :      0.000u      0.000s      0.000w      9 calls
HF: DIIS                            :      0.000u      0.000s      0.345w      8 calls
HF: Form C                          :      0.000u      0.000s      0.004w      8 calls

**************************************************************************************

Host: BEAST_MACHINE

Timers On : Tue Jun 30 00:42:47 2026
Timers Off: Tue Jun 30 00:42:48 2026

Wall Time:        1.23 seconds

                                                       Time (seconds)
Module                                       User      System        Wall        Calls
DFH: sparsity prep                  :      0.000u      0.000s      0.002w      1 calls
Libint2ERI::Libint2ERI              :      0.000u      0.000s      0.002w      3 calls
DFH: initialize()                   :      0.000u      0.000s      0.019w      1 calls
DFH: AO Construction                :      0.000u      0.000s      0.001w      1 calls
DFH: AO-Met. Contraction            :      0.000u      0.000s      0.000w      1 calls
HF: Form core H                     :      0.000u      0.000s      0.002w      1 calls
HF: Form S/X                        :      0.000u      0.000s      0.000w      1 calls
HF: Guess                           :      0.000u      0.000s      0.055w      1 calls
SAD Guess                           :      0.000u      0.000s      0.054w      1 calls
HF: Form G                          :      0.000u      0.000s      0.002w     11 calls
JK: D                               :      0.000u      0.000s      0.000w     11 calls
JK: USO2AO                          :      0.000u      0.000s      0.000w     11 calls
JK: JK                              :      0.000u      0.000s      0.001w     11 calls
DFH: compute_JK()                   :      0.000u      0.000s      0.001w     11 calls
DFH: Grabbing AOs                   :      0.000u      0.000s      0.000w     11 calls
DFH: compute_J                      :      0.000u      0.000s      0.000w     11 calls
DFH: compute_K                      :      0.000u      0.000s      0.001w     11 calls
JK: AO2USO                          :      0.000u      0.000s      0.000w     11 calls
HF: Form F                          :      0.000u      0.000s      0.000w     11 calls
HF: Form D                          :      0.000u      0.000s      0.000w     11 calls
HF: DIIS                            :      0.000u      0.000s      0.332w     10 calls
HF: Form C                          :      0.000u      0.000s      0.003w     10 calls

--------------------------------------------------------------------------------------
DFH: sparsity prep                  :      0.000u      0.000s      0.002w      1 calls
| Libint2ERI::Libint2ERI            :      0.000u      0.000s      0.001w      1 calls
DFH: initialize()                   :      0.000u      0.000s      0.019w      1 calls
| Libint2ERI::Libint2ERI            :      0.000u      0.000s      0.001w      2 calls
| DFH: AO Construction              :      0.000u      0.000s      0.001w      1 calls
| DFH: AO-Met. Contraction          :      0.000u      0.000s      0.000w      1 calls
HF: Form core H                     :      0.000u      0.000s      0.002w      1 calls
HF: Form S/X                        :      0.000u      0.000s      0.000w      1 calls
HF: Guess                           :      0.000u      0.000s      0.055w      1 calls
| SAD Guess                         :      0.000u      0.000s      0.054w      1 calls
HF: Form G                          :      0.000u      0.000s      0.002w     11 calls
| JK: D                             :      0.000u      0.000s      0.000w     11 calls
| JK: USO2AO                        :      0.000u      0.000s      0.000w     11 calls
| JK: JK                            :      0.000u      0.000s      0.001w     11 calls
| | DFH: compute_JK()               :      0.000u      0.000s      0.001w     11 calls
| | | DFH: Grabbing AOs             :      0.000u      0.000s      0.000w     11 calls
| | | DFH: compute_J                :      0.000u      0.000s      0.000w     11 calls
| | | DFH: compute_K                :      0.000u      0.000s      0.001w     11 calls
| JK: AO2USO                        :      0.000u      0.000s      0.000w     11 calls
HF: Form F                          :      0.000u      0.000s      0.000w     11 calls
HF: Form D                          :      0.000u      0.000s      0.000w     11 calls
HF: DIIS                            :      0.000u      0.000s      0.332w     10 calls
HF: Form C                          :      0.000u      0.000s      0.003w     10 calls

**************************************************************************************

Host: BEAST_MACHINE

Timers On : Tue Jun 30 00:55:25 2026
Timers Off: Tue Jun 30 00:55:27 2026

Wall Time:        1.33 seconds

                                                       Time (seconds)
Module                                       User      System        Wall        Calls
DFH: sparsity prep                  :      0.000u      0.000s      0.002w      1 calls
Libint2ERI::Libint2ERI              :      0.000u      0.000s      0.003w      3 calls
DFH: initialize()                   :      0.000u      0.000s      0.021w      1 calls
DFH: AO Construction                :      0.000u      0.000s      0.001w      1 calls
DFH: AO-Met. Contraction            :      0.000u      0.000s      0.000w      1 calls
HF: Form core H                     :      0.000u      0.000s      0.002w      1 calls
HF: Form S/X                        :      0.000u      0.000s      0.000w      1 calls
HF: Guess                           :      0.000u      0.000s      0.041w      1 calls
SAD Guess                           :      0.000u      0.000s      0.040w      1 calls
HF: Form G                          :      0.000u      0.000s      0.002w     13 calls
JK: D                               :      0.000u      0.000s      0.000w     13 calls
JK: USO2AO                          :      0.000u      0.000s      0.000w     13 calls
JK: JK                              :      0.000u      0.000s      0.002w     13 calls
DFH: compute_JK()                   :      0.000u      0.000s      0.002w     13 calls
DFH: Grabbing AOs                   :      0.000u      0.000s      0.000w     13 calls
DFH: compute_J                      :      0.000u      0.000s      0.001w     13 calls
DFH: compute_K                      :      0.000u      0.000s      0.001w     13 calls
JK: AO2USO                          :      0.000u      0.000s      0.000w     13 calls
HF: Form F                          :      0.000u      0.000s      0.000w     13 calls
HF: Form D                          :      0.000u      0.000s      0.000w     13 calls
HF: DIIS                            :      0.000u      0.000s      0.404w     12 calls
HF: Form C                          :      0.000u      0.000s      0.004w     12 calls

--------------------------------------------------------------------------------------
DFH: sparsity prep                  :      0.000u      0.000s      0.002w      1 calls
| Libint2ERI::Libint2ERI            :      0.000u      0.000s      0.002w      1 calls
DFH: initialize()                   :      0.000u      0.000s      0.021w      1 calls
| Libint2ERI::Libint2ERI            :      0.000u      0.000s      0.001w      2 calls
| DFH: AO Construction              :      0.000u      0.000s      0.001w      1 calls
| DFH: AO-Met. Contraction          :      0.000u      0.000s      0.000w      1 calls
HF: Form core H                     :      0.000u      0.000s      0.002w      1 calls
HF: Form S/X                        :      0.000u      0.000s      0.000w      1 calls
HF: Guess                           :      0.000u      0.000s      0.041w      1 calls
| SAD Guess                         :      0.000u      0.000s      0.040w      1 calls
HF: Form G                          :      0.000u      0.000s      0.002w     13 calls
| JK: D                             :      0.000u      0.000s      0.000w     13 calls
| JK: USO2AO                        :      0.000u      0.000s      0.000w     13 calls
| JK: JK                            :      0.000u      0.000s      0.002w     13 calls
| | DFH: compute_JK()               :      0.000u      0.000s      0.002w     13 calls
| | | DFH: Grabbing AOs             :      0.000u      0.000s      0.000w     13 calls
| | | DFH: compute_J                :      0.000u      0.000s      0.001w     13 calls
| | | DFH: compute_K                :      0.000u      0.000s      0.001w     13 calls
| JK: AO2USO                        :      0.000u      0.000s      0.000w     13 calls
HF: Form F                          :      0.000u      0.000s      0.000w     13 calls
HF: Form D                          :      0.000u      0.000s      0.000w     13 calls
HF: DIIS                            :      0.000u      0.000s      0.404w     12 calls
HF: Form C                          :      0.000u      0.000s      0.004w     12 calls

**************************************************************************************

Host: BEAST_MACHINE

Timers On : Tue Jun 30 00:56:15 2026
Timers Off: Tue Jun 30 00:56:16 2026

Wall Time:        0.69 seconds

                                                       Time (seconds)
Module                                       User      System        Wall        Calls

--------------------------------------------------------------------------------------

**************************************************************************************

Host: BEAST_MACHINE

Timers On : Tue Jun 30 00:56:16 2026
Timers Off: Tue Jun 30 00:56:17 2026

Wall Time:        0.74 seconds

                                                       Time (seconds)
Module                                       User      System        Wall        Calls

[...]
HF: Form D                          :      0.000u      0.000s      0.000w     12 calls
HF: DIIS                            :      0.000u      0.000s      0.344w     11 calls
HF: Form C                          :      0.000u      0.000s      0.005w     11 calls

--------------------------------------------------------------------------------------
DFH: sparsity prep                  :      0.000u      0.000s      0.008w      1 calls
| Libint2ERI::Libint2ERI            :      0.000u      0.000s      0.007w      1 calls
DFH: initialize()                   :      0.000u      0.000s      0.045w      1 calls
| Libint2ERI::Libint2ERI            :      0.000u      0.000s      0.004w      2 calls
| DFH: AO Construction              :      0.000u      0.000s      0.005w      1 calls
| DFH: AO-Met. Contraction          :      0.000u      0.000s      0.002w      1 calls
HF: Form core H                     :      0.000u      0.000s      0.003w      1 calls
HF: Form S/X                        :      0.000u      0.000s      0.000w      1 calls
HF: Guess                           :      0.000u      0.000s      0.090w      1 calls
| SAD Guess                         :      0.000u      0.000s      0.088w      1 calls
HF: Form G                          :      0.000u      0.000s      0.006w     12 calls
| JK: D                             :      0.000u      0.000s      0.000w     12 calls
| JK: USO2AO                        :      0.000u      0.000s      0.000w     12 calls
| JK: JK                            :      0.000u      0.000s      0.006w     12 calls
| | DFH: compute_JK()               :      0.000u      0.000s      0.006w     12 calls
| | | DFH: Grabbing AOs             :      0.000u      0.000s      0.000w     12 calls
| | | DFH: compute_J                :      0.000u      0.000s      0.002w     12 calls
| | | DFH: compute_K                :      0.000u      0.000s      0.003w     12 calls
| JK: AO2USO                        :      0.000u      0.000s      0.000w     12 calls
HF: Form F                          :      0.000u      0.000s      0.000w     12 calls
HF: Form D                          :      0.000u      0.000s      0.000w     12 calls
HF: DIIS                            :      0.000u      0.000s      0.344w     11 calls
HF: Form C                          :      0.000u      0.000s      0.005w     11 calls

**************************************************************************************

Host: BEAST_MACHINE

Timers On : Tue Jun 30 01:20:44 2026
Timers Off: Tue Jun 30 01:20:45 2026

Wall Time:        1.29 seconds

                                                       Time (seconds)
Module                                       User      System        Wall        Calls
DFH: sparsity prep                  :      0.000u      0.000s      0.006w      1 calls
Libint2ERI::Libint2ERI              :      0.000u      0.000s      0.009w      3 calls
DFH: initialize()                   :      0.000u      0.000s      0.030w      1 calls
DFH: AO Construction                :      0.000u      0.000s      0.002w      1 calls
DFH: AO-Met. Contraction            :      0.000u      0.000s      0.001w      1 calls
HF: Form core H                     :      0.000u      0.000s      0.002w      1 calls
HF: Form S/X                        :      0.000u      0.000s      0.000w      1 calls
HF: Guess                           :      0.000u      0.000s      0.061w      1 calls
SAD Guess                           :      0.000u      0.000s      0.060w      1 calls
HF: Form G                          :      0.000u      0.000s      0.002w     11 calls
JK: D                               :      0.000u      0.000s      0.000w     11 calls
JK: USO2AO                          :      0.000u      0.000s      0.000w     11 calls
JK: JK                              :      0.000u      0.000s      0.002w     11 calls
DFH: compute_JK()                   :      0.000u      0.000s      0.002w     11 calls
DFH: Grabbing AOs                   :      0.000u      0.000s      0.000w     11 calls
DFH: compute_J                      :      0.000u      0.000s      0.001w     11 calls
DFH: compute_K                      :      0.000u      0.000s      0.001w     11 calls
JK: AO2USO                          :      0.000u      0.000s      0.000w     11 calls
HF: Form F                          :      0.000u      0.000s      0.000w     11 calls
HF: Form D                          :      0.000u      0.000s      0.000w     11 calls
HF: DIIS                            :      0.000u      0.000s      0.335w     10 calls
HF: Form C                          :      0.000u      0.000s      0.004w     10 calls

--------------------------------------------------------------------------------------
DFH: sparsity prep                  :      0.000u      0.000s      0.006w      1 calls
| Libint2ERI::Libint2ERI            :      0.000u      0.000s      0.005w      1 calls
DFH: initialize()                   :      0.000u      0.000s      0.030w      1 calls
| Libint2ERI::Libint2ERI            :      0.000u      0.000s      0.003w      2 calls
| DFH: AO Construction              :      0.000u      0.000s      0.002w      1 calls
| DFH: AO-Met. Contraction          :      0.000u      0.000s      0.001w      1 calls
HF: Form core H                     :      0.000u      0.000s      0.002w      1 calls
HF: Form S/X                        :      0.000u      0.000s      0.000w      1 calls
HF: Guess                           :      0.000u      0.000s      0.061w      1 calls
| SAD Guess                         :      0.000u      0.000s      0.060w      1 calls
HF: Form G                          :      0.000u      0.000s      0.002w     11 calls
| JK: D                             :      0.000u      0.000s      0.000w     11 calls
| JK: USO2AO                        :      0.000u      0.000s      0.000w     11 calls
| JK: JK                            :      0.000u      0.000s      0.002w     11 calls
| | DFH: compute_JK()               :      0.000u      0.000s      0.002w     11 calls
| | | DFH: Grabbing AOs             :      0.000u      0.000s      0.000w     11 calls
| | | DFH: compute_J                :      0.000u      0.000s      0.001w     11 calls
| | | DFH: compute_K                :      0.000u      0.000s      0.001w     11 calls
| JK: AO2USO                        :      0.000u      0.000s      0.000w     11 calls
HF: Form F                          :      0.000u      0.000s      0.000w     11 calls
HF: Form D                          :      0.000u      0.000s      0.000w     11 calls
HF: DIIS                            :      0.000u      0.000s      0.335w     10 calls
HF: Form C                          :      0.000u      0.000s      0.004w     10 calls

**************************************************************************************

Host: BEAST_MACHINE

Timers On : Tue Jun 30 01:24:43 2026
Timers Off: Tue Jun 30 01:24:44 2026

Wall Time:        1.21 seconds

                                                       Time (seconds)
Module                                       User      System        Wall        Calls
DFH: sparsity prep                  :      0.000u      0.000s      0.005w      1 calls
Libint2ERI::Libint2ERI              :      0.000u      0.000s      0.007w      3 calls
DFH: initialize()                   :      0.000u      0.000s      0.024w      1 calls
DFH: AO Construction                :      0.000u      0.000s      0.001w      1 calls
DFH: AO-Met. Contraction            :      0.000u      0.000s      0.000w      1 calls
HF: Form core H                     :      0.000u      0.000s      0.002w      1 calls
HF: Form S/X                        :      0.000u      0.000s      0.000w      1 calls
HF: Guess                           :      0.000u      0.000s      0.056w      1 calls
SAD Guess                           :      0.000u      0.000s      0.055w      1 calls
HF: Form G                          :      0.000u      0.000s      0.001w     11 calls
JK: D                               :      0.000u      0.000s      0.000w     11 calls
JK: USO2AO                          :      0.000u      0.000s      0.000w     11 calls
JK: JK                              :      0.000u      0.000s      0.001w     11 calls
DFH: compute_JK()                   :      0.000u      0.000s      0.001w     11 calls
DFH: Grabbing AOs                   :      0.000u      0.000s      0.000w     11 calls
DFH: compute_J                      :      0.000u      0.000s      0.000w     11 calls
DFH: compute_K                      :      0.000u      0.000s      0.001w     11 calls
JK: AO2USO                          :      0.000u      0.000s      0.000w     11 calls
HF: Form F                          :      0.000u      0.000s      0.000w     11 calls
HF: Form D                          :      0.000u      0.000s      0.000w     11 calls
HF: DIIS                            :      0.000u      0.000s      0.327w     10 calls
HF: Form C                          :      0.000u      0.000s      0.003w     10 calls

--------------------------------------------------------------------------------------
DFH: sparsity prep                  :      0.000u      0.000s      0.005w      1 calls
| Libint2ERI::Libint2ERI            :      0.000u      0.000s      0.005w      1 calls
DFH: initialize()                   :      0.000u      0.000s      0.024w      1 calls
| Libint2ERI::Libint2ERI            :      0.000u      0.000s      0.003w      2 calls
| DFH: AO Construction              :      0.000u      0.000s      0.001w      1 calls
| DFH: AO-Met. Contraction          :      0.000u      0.000s      0.000w      1 calls
HF: Form core H                     :      0.000u      0.000s      0.002w      1 calls
HF: Form S/X                        :      0.000u      0.000s      0.000w      1 calls
HF: Guess                           :      0.000u      0.000s      0.056w      1 calls
| SAD Guess                         :      0.000u      0.000s      0.055w      1 calls
HF: Form G                          :      0.000u      0.000s      0.001w     11 calls
| JK: D                             :      0.000u      0.000s      0.000w     11 calls
| JK: USO2AO                        :      0.000u      0.000s      0.000w     11 calls
| JK: JK                            :      0.000u      0.000s      0.001w     11 calls
| | DFH: compute_JK()               :      0.000u      0.000s      0.001w     11 calls
| | | DFH: Grabbing AOs             :      0.000u      0.000s      0.000w     11 calls
| | | DFH: compute_J                :      0.000u      0.000s      0.000w     11 calls
| | | DFH: compute_K                :      0.000u      0.000s      0.001w     11 calls
| JK: AO2USO                        :      0.000u      0.000s      0.000w     11 calls
HF: Form F                          :      0.000u      0.000s      0.000w     11 calls
HF: Form D                          :      0.000u      0.000s      0.000w     11 calls
HF: DIIS                            :      0.000u      0.000s      0.327w     10 calls
HF: Form C                          :      0.000u      0.000s      0.003w     10 calls

**************************************************************************************

Host: BEAST_MACHINE

Timers On : Tue Jun 30 01:25:47 2026
Timers Off: Tue Jun 30 01:25:48 2026

Wall Time:        1.24 seconds

                                                       Time (seconds)
Module                                       User      System        Wall        Calls
DFH: sparsity prep                  :      0.000u      0.000s      0.006w      1 calls
Libint2ERI::Libint2ERI              :      0.000u      0.000s      0.008w      3 calls
DFH: initialize()                   :      0.000u      0.000s      0.031w      1 calls
DFH: AO Construction                :      0.000u      0.000s      0.003w      1 calls
DFH: AO-Met. Contraction            :      0.000u      0.000s      0.001w      1 calls
HF: Form core H                     :      0.000u      0.000s      0.002w      1 calls
HF: Form S/X                        :      0.000u      0.000s      0.000w      1 calls
HF: Guess                           :      0.000u      0.000s      0.055w      1 calls
SAD Guess                           :      0.000u      0.000s      0.054w      1 calls
HF: Form G                          :      0.000u      0.000s      0.003w      9 calls
JK: D                               :      0.000u      0.000s      0.000w      9 calls
JK: USO2AO                          :      0.000u      0.000s      0.000w      9 calls
JK: JK                              :      0.000u      0.000s      0.003w      9 calls
DFH: compute_JK()                   :      0.000u      0.000s      0.003w      9 calls
DFH: Grabbing AOs                   :      0.000u      0.000s      0.000w      9 calls
DFH: compute_J                      :      0.000u      0.000s      0.001w      9 calls
DFH: compute_K                      :      0.000u      0.000s      0.001w      9 calls
JK: AO2USO                          :      0.000u      0.000s      0.000w      9 calls
HF: Form F                          :      0.000u      0.000s      0.000w      9 calls
HF: Form D                          :      0.000u      0.000s      0.000w      9 calls
HF: DIIS                            :      0.000u      0.000s      0.317w      8 calls
HF: Form C                          :      0.000u      0.000s      0.003w      8 calls

--------------------------------------------------------------------------------------
DFH: sparsity prep                  :      0.000u      0.000s      0.006w      1 calls
| Libint2ERI::Libint2ERI            :      0.000u      0.000s      0.005w      1 calls
DFH: initialize()                   :      0.000u      0.000s      0.031w      1 calls
| Libint2ERI::Libint2ERI            :      0.000u      0.000s      0.003w      2 calls
| DFH: AO Construction              :      0.000u      0.000s      0.003w      1 calls
| DFH: AO-Met. Contraction          :      0.000u      0.000s      0.001w      1 calls
HF: Form core H                     :      0.000u      0.000s      0.002w      1 calls
HF: Form S/X                        :      0.000u      0.000s      0.000w      1 calls
HF: Guess                           :      0.000u      0.000s      0.055w      1 calls
| SAD Guess                         :      0.000u      0.000s      0.054w      1 calls
HF: Form G                          :      0.000u      0.000s      0.003w      9 calls
| JK: D                             :      0.000u      0.000s      0.000w      9 calls
| JK: USO2AO                        :      0.000u      0.000s      0.000w      9 calls
| JK: JK                            :      0.000u      0.000s      0.003w      9 calls
| | DFH: compute_JK()               :      0.000u      0.000s      0.003w      9 calls
| | | DFH: Grabbing AOs             :      0.000u      0.000s      0.000w      9 calls
| | | DFH: compute_J                :      0.000u      0.000s      0.001w      9 calls
| | | DFH: compute_K                :      0.000u      0.000s      0.001w      9 calls
| JK: AO2USO                        :      0.000u      0.000s      0.000w      9 calls
HF: Form F                          :      0.000u      0.000s      0.000w      9 calls
HF: Form D                          :      0.000u      0.000s      0.000w      9 calls
HF: DIIS                            :      0.000u      0.000s      0.317w      8 calls
HF: Form C                          :      0.000u      0.000s      0.003w      8 calls

**************************************************************************************

Host: BEAST_MACHINE

Timers On : Tue Jun 30 01:27:00 2026
Timers Off: Tue Jun 30 01:27:27 2026

Wall Time:       27.35 seconds

                                                       Time (seconds)
Module                                       User      System        Wall        Calls
DFH: sparsity prep                  :      0.000u      0.000s      0.031w      1 calls
Libint2ERI::Libint2ERI              :      0.000u      0.000s      0.040w      3 calls
DFH: initialize()                   :      0.000u      0.000s      0.318w      1 calls
DFH: AO Construction                :      0.000u      0.000s      0.112w      1 calls
DFH: AO-Met. Contraction            :      0.000u      0.000s      0.108w      1 calls
HF: Form core H                     :      0.000u      0.000s      0.007w      1 calls
HF: Form S/X                        :      0.000u      0.000s      0.002w      1 calls
HF: Guess                           :      0.000u      0.000s      0.087w      1 calls
SAD Guess                           :      0.000u      0.000s      0.086w      1 calls
HF: Form G                          :      0.000u      0.000s      0.321w     14 calls
JK: D                               :      0.000u      0.000s      0.000w     14 calls
JK: USO2AO                          :      0.000u      0.000s      0.000w     14 calls
JK: JK                              :      0.000u      0.000s      0.320w     14 calls
DFH: compute_JK()                   :      0.000u      0.000s      0.320w     14 calls
DFH: Grabbing AOs                   :      0.000u      0.000s      0.000w     14 calls
DFH: compute_J                      :      0.000u      0.000s      0.053w     14 calls
DFH: compute_K                      :      0.000u      0.000s      0.231w     14 calls
JK: AO2USO                          :      0.000u      0.000s      0.000w     14 calls
HF: Form F                          :      0.000u      0.000s      0.000w     14 calls
HF: Form D                          :      0.000u      0.000s      0.000w     14 calls
HF: DIIS                            :      0.000u      0.000s      0.352w     13 calls
HF: Form C                          :      0.000u      0.000s      0.021w     13 calls

--------------------------------------------------------------------------------------
DFH: sparsity prep                  :      0.000u      0.000s      0.031w      1 calls
| Libint2ERI::Libint2ERI            :      0.000u      0.000s      0.021w      1 calls
DFH: initialize()                   :      0.000u      0.000s      0.318w      1 calls
| Libint2ERI::Libint2ERI            :      0.000u      0.000s      0.019w      2 calls
| DFH: AO Construction              :      0.000u      0.000s      0.112w      1 calls
| DFH: AO-Met. Contraction          :      0.000u      0.000s      0.108w      1 calls
HF: Form core H                     :      0.000u      0.000s      0.007w      1 calls
HF: Form S/X                        :      0.000u      0.000s      0.002w      1 calls
HF: Guess                           :      0.000u      0.000s      0.087w      1 calls
| SAD Guess                         :      0.000u      0.000s      0.086w      1 calls
HF: Form G                          :      0.000u      0.000s      0.321w     14 calls
| JK: D                             :      0.000u      0.000s      0.000w     14 calls
| JK: USO2AO                        :      0.000u      0.000s      0.000w     14 calls
| JK: JK                            :      0.000u      0.000s      0.320w     14 calls
| | DFH: compute_JK()               :      0.000u      0.000s      0.320w     14 calls
| | | DFH: Grabbing AOs             :      0.000u      0.000s      0.000w     14 calls
| | | DFH: compute_J                :      0.000u      0.000s      0.053w     14 calls
| | | DFH: compute_K                :      0.000u      0.000s      0.231w     14 calls
| JK: AO2USO                        :      0.000u      0.000s      0.000w     14 calls
HF: Form F                          :      0.000u      0.000s      0.000w     14 calls
HF: Form D                          :      0.000u      0.000s      0.000w     14 calls
HF: DIIS                            :      0.000u      0.000s      0.352w     13 calls
HF: Form C                          :      0.000u      0.000s      0.021w     13 calls

**************************************************************************************
